   50
Geometry Step: 68
    C      3.15372510      0.91831159     -8.75613861      4.21936525
    H      2.49983229      0.12067151     -8.40563602      0.92079793
    H      2.67789145      1.87054630     -8.52574381      0.92564277
    H      3.23373233      0.83474913     -9.83900917      0.92005216
    C      4.53625271      0.82791015     -8.09644387      4.10005387
    H      4.41319564      0.91323691     -7.00631402      0.92444775
    O      5.72212907      1.95785407     -9.88939395      6.33962889
    C      5.41385133      2.00146102     -8.55537396      3.35316947
    O      5.80131694      2.90611131     -7.83261215      6.52132763
    C      6.51871336      3.04478797    -10.36059842      3.93343867
    H      7.48396551      3.07020758     -9.83728953      0.94451728
    H      6.68681497      2.89696746    -11.43138392      0.95191395
    H      6.00249058      3.99985533    -10.19759560      0.94129576
    C      6.61426330     -0.63371627     -7.73943134      4.12436724
    H      6.50230349     -0.56734001     -6.65102617      0.92804392
    H      7.21691354      0.23231100     -8.03942183      0.92977449
    C      5.22238361     -0.54262899     -8.40504866      4.11465861
    H      5.34605827     -0.62540312     -9.49527300      0.92195206
    O      4.15416100     -1.75527797     -6.59425808      6.34071922
    C      4.32027031     -1.70002696     -7.95317693      3.35177050
    O      3.78356778     -2.50197204     -8.70158457      6.52213416
    C      3.31218623     -2.81110194     -6.13111274      3.93358315
    H      3.71664967     -3.78651524     -6.43182320      0.94281089
    H      3.27087315     -2.75209581     -5.03964836      0.95156026
    H      2.29995004     -2.70547204     -6.54311965      0.94290607
    C      7.35232470     -1.92520499     -8.10549958      4.12438603
    H      6.75439643     -2.79138902     -7.79690222      0.92938304
    H      7.45457770     -1.99602966     -9.19466126      0.92807235
    C      8.75189877     -2.01228346     -7.45557628      4.11473794
    H      8.64183868     -1.93428821     -6.36355473      0.92205260
    O      9.79800054     -0.79036350     -9.27361221      6.34047790
    C      9.64254636     -0.84872084     -7.91359824      3.35147980
    O     10.17784143     -0.04286871     -7.16831591      6.52247533
    C     10.62731579      0.27343417     -9.74090353      3.93343183
    H     11.64158439      0.17949698     -9.33107036      0.94271713
    H     10.66617374      0.21271279    -10.83234983      0.95144909
    H     10.21333594      1.24529334     -9.44083129      0.94361982
    C     10.85008202     -3.45546540     -7.19248863      4.21940092
    H     10.82883831     -3.35001406     -6.10893641      0.91933128
    H     11.48234007     -2.66476077     -7.59453564      0.92142040
    C      9.43446918     -3.38147428     -7.77940647      4.09990834
    H      9.50060249     -3.48136686     -8.87316684      0.92450350
    O      8.38457758     -4.51201241     -5.90479152      6.33933780
    C      8.58537953     -4.55060799     -7.25918130      3.35348715
    O      8.13169493     -5.44668702     -7.95359815      6.52139186
    C      7.61963297     -5.59513322     -5.37569477      3.93331427
    H      8.09903972     -6.55493930     -5.60769566      0.94083321
    H      7.56233884     -5.46638412     -4.29093430      0.95153166
    H      6.60586154     -5.59453804     -5.79843499      0.94537280
    H     11.31580467     -4.41107466     -7.42957049      0.92595199
