   98
Geometry Step: 436
    C      3.12597510      0.96485008     -8.72519795      4.21922123
    H      2.47644767      0.16743082     -8.36610012      0.92093336
    H      2.65775263      1.91726884     -8.48099622      0.92516668
    H      3.18476293      0.88638137     -9.80971587      0.92026741
    C      4.52042800      0.86867003     -8.09151670      4.09998631
    H      4.41629649      0.95214654     -6.99924467      0.92429369
    O      5.70684000      1.98182490     -9.89547618      6.34015322
    C      5.38948335      2.04362220     -8.56410005      3.35330454
    O      5.75962879      2.96548930     -7.85443965      6.52034154
    C      6.48619185      3.07469494    -10.38168166      3.93353704
    H      7.44323009      3.13403435     -9.84654750      0.94379491
    H      6.67174474      2.90563425    -11.44640053      0.95214238
    H      5.94701140      4.02169185    -10.24858084      0.94154328
    C      6.59094338     -0.60325073     -7.75133500      4.12473237
    H      6.48081130     -0.53577343     -6.66282870      0.92770357
    H      7.19799061      0.25919034     -8.05197620      0.92894505
    C      5.19837101     -0.50233510     -8.41394232      4.11497637
    H      5.31955800     -0.57649071     -9.50499868      0.92166749
    O      4.12428201     -1.72227196     -6.61090756      6.34102673
    C      4.29270336     -1.65981185     -7.96959330      3.35191052
    O      3.75537972     -2.45616742     -8.72330590      6.52163951
    C      3.27938026     -2.77890663     -6.15489354      3.93347465
    H      3.68910458     -3.75410741     -6.44986539      0.94371786
    H      3.22695361     -2.71836434     -5.06394193      0.95158235
    H      2.27132380     -2.67589464     -6.57761954      0.94234957
    C      7.32133273     -1.89945041     -8.11667319      4.12353052
    H      6.71239532     -2.76125465     -7.81817786      0.92829703
    H      7.43562000     -1.96656642     -9.20481619      0.92788918
    C      8.71342737     -1.99967137     -7.44950677      4.11506411
    H      8.58802072     -1.91891824     -6.35925940      0.92209212
    O      9.86458305     -0.84179010     -9.24592596      6.34150421
    C      9.60795174     -0.83517831     -7.89927696      3.35391626
    O     10.05540805      0.02776431     -7.16140018      6.51747721
    C     10.68424190      0.23179448     -9.70817262      3.93332523
    H     11.66767009      0.20380705     -9.22047241      0.94309692
    H     10.80801432      0.11729436    -10.78896165      0.95194957
    H     10.21031131      1.19861617     -9.49319601      0.94281967
    C     10.78678166     -3.46790874     -7.10035482      4.12414039
    H     10.67718925     -3.39640179     -6.01216252      0.92730288
    H     11.39262181     -2.60600334     -7.40472124      0.92777172
    C      9.39258773     -3.37220263     -7.76312866      4.11519340
    H      9.51523663     -3.45487950     -8.85357209      0.92202383
    O      8.26742225     -4.54132174     -5.95711512      6.34149788
    C      8.49667354     -4.53406388     -7.30878545      3.35415961
    O      8.02178353     -5.38109777     -8.04798930      6.51741649
    C      7.44335530     -5.61029420     -5.49179268      3.93330643
    H      7.90924921     -6.57972973     -5.71339259      0.94334320
    H      7.32870046     -5.49786678     -4.40974105      0.95175835
    H      6.45689451     -5.57334181     -5.97255914      0.94269668
    C     11.51736151     -4.76459011     -7.46255501      4.12393471
    H     10.91274760     -5.62617444     -7.15471581      0.92779119
    H     11.62307901     -4.83747553     -8.55106566      0.92745096
    C     12.91412250     -4.85938128     -6.80509932      4.11516054
    H     12.79575033     -4.77777855     -5.71412506      0.92210654
    O     14.04521367     -3.69736153     -8.61207777      6.34150651
    C     13.80686291     -3.69561676     -7.26194948      3.35413837
    O     14.27059286     -2.83953682     -6.52616875      6.51717411
    C     14.87034716     -2.63060928     -9.08027620      3.93324718
    H     15.86270132     -2.67699264     -8.61231809      0.94334137
    H     14.97128765     -2.73643146    -10.16440785      0.95190098
    H     14.41449036     -1.65949883     -8.84649714      0.94278348
    C     14.98839960     -6.32773757     -6.46239495      4.12373110
    H     14.87881592     -6.26626383     -5.37353241      0.92790821
    H     15.59005729     -5.46039194     -6.75952528      0.92822993
    C     13.59347320     -6.23080141     -7.12352388      4.11517850
    H     13.71511297     -6.30845233     -8.21442934      0.92207757
    O     12.46171154     -7.40423135     -5.32442731      6.34168816
    C     12.70203561     -7.39801179     -6.67409703      3.35398798
    O     12.24336610     -8.25240244     -7.41500213      6.51720274
    C     11.64698669     -8.48174144     -4.86205583      3.93353558
    H     12.11951869     -9.44671547     -5.08778815      0.94224182
    H     11.53305808     -8.37412706     -3.77954287      0.95203945
    H     10.65909882     -8.45130681     -5.34028054      0.94309901
    C     15.72597050     -7.61703977     -6.83722102      4.12456999
    H     15.13735308     -8.48591026     -6.51893508      0.92870343
    H     15.81245775     -7.68846531     -7.92770666      0.92777213
    C     17.13542374     -7.69546456     -6.20720004      4.11509413
    H     17.04064857     -7.61292568     -5.11405802      0.92182658
    O     18.16411250     -6.48890703     -8.04499661      6.34088020
    C     18.01219057     -6.52854549     -6.68364072      3.35168647
    O     18.53905936     -5.70529011     -5.95175814      6.52163404
    C     18.98133484     -5.42410432     -8.53056076      3.93337613
    H     19.99004978     -5.48613496     -8.10175966      0.94194109
    H     19.03900883     -5.51654625     -9.61895613      0.95149231
    H     18.54417560     -4.45165974     -8.26697916      0.94456151
    C     19.25019307     -9.12001676     -5.98186595      4.21923252
    H     19.25560171     -8.99952818     -4.89959364      0.91959314
    H     19.86660608     -8.33089021     -6.41092920      0.92166010
    C     17.81962390     -9.06280050     -6.53426676      4.09993714
    H     17.86017650     -9.17389864     -7.62813348      0.92414605
    O     16.80040965    -10.16309781     -4.62574389      6.33980387
    C     16.99593658    -10.23444624     -5.97976612      3.35364369
    O     16.55926048    -11.15886287     -6.64723067      6.52049519
    C     16.06467122    -11.24936638     -4.06326347      3.93332836
    H     16.58956122    -12.19888653     -4.23199109      0.94180737
    H     15.97166085    -11.06927727     -2.98829007      0.95177828
    H     15.06494566    -11.31204101     -4.51349648      0.94411307
    H     19.71609265    -10.07596681     -6.21705828      0.92548270
